# vtk DataFile Version 5.1
vtk output
ASCII
DATASET UNSTRUCTURED_GRID
POINTS 26 float
1 1 -0.3333 1.3333 1 0 0 1 -0.3333 
1 1.3333 0 1 0 0.3333 1 1 0.3333 
0 1.3333 0 0 0 -0.3333 -0.3333 1 0 
-0.3333 0 0 1 1.3333 1 -0.3333 1 1 
1.3333 1 1 1 0 -0.3333 0 -0.3333 0 
0 1.3333 1 1 1 1.3333 1 -0.3333 0 
1.3333 0 0 -0.3333 0 1 0 -0.3333 1 
0 1 1.3333 1 -0.3333 1 0 0 1.3333 
1.3333 0 1 1 0 1.3333 
CELLS 49 144
OFFSETS vtktypeint64
0 3 6 9 12 15 18 21 24 
27 30 33 36 39 42 45 48 51 
54 57 60 63 66 69 72 75 78 
81 84 87 90 93 96 99 102 105 
108 111 114 117 120 123 126 129 132 
135 138 141 144 
CONNECTIVITY vtktypeint64
7 2 0 0 2 6 0 1 18 
1 0 3 0 6 3 13 7 0 
1 4 18 4 1 5 2 7 9 
8 6 2 2 9 8 4 5 1 
4 1 12 1 3 10 3 6 15 
1 10 12 3 15 10 6 8 11 
4 12 24 11 8 9 14 9 7 
17 14 7 13 17 7 11 9 19 
6 11 15 12 16 25 0 18 13 
16 12 10 16 10 15 17 13 18 
16 15 21 12 25 24 14 20 9 
14 17 22 14 22 20 21 15 11 
17 18 4 20 19 9 21 23 16 
11 19 23 17 4 24 17 24 22 
11 23 21 23 25 16 20 23 19 
23 20 22 23 22 25 22 24 25 

CELL_TYPES 48
5
5
5
5
5
5
5
5
5
5
5
5
5
5
5
5
5
5
5
5
5
5
5
5
5
5
5
5
5
5
5
5
5
5
5
5
5
5
5
5
5
5
5
5
5
5
5
5

CELL_DATA 48
FIELD FieldData 1
group 1 48 int
0 0 0 0 0 0 0 0 0 
0 0 0 0 0 0 0 0 0 
0 0 0 0 0 0 0 0 0 
0 0 0 0 0 0 0 0 0 
0 0 0 0 0 0 0 0 0 
0 0 0 
